Lammps .data file creat at 2020-10-19T20:58:28.722 by Julia Package "lmp_str"

247		atoms
250		bonds
444		angles
654		dihedrals
35		impropers
24		atom types
40		bond types
90		angle types
108		dihedral types
3		improper types
-14.528		13.407		 xlo xhi
-6.01		5.711		 ylo yhi
-5.684		6.684		 zlo zhi


Masses

1	14.007		# NH3
2	1.008		# HC
3	12.011		# CT2
4	1.008		# HB2
5	12.011		# C
6	15.999		# O
7	14.007		# NH1
8	1.008		# H
9	12.011		# CT1
10	1.008		# HB1
11	12.011		# CT2A
12	1.008		# HA2
13	12.011		# CC
14	15.999		# OC
15	12.011		# CY
16	12.011		# CA
17	1.008		# HP
18	14.007		# NY
19	12.011		# CPT
20	12.011		# CAI
21	1.008		# HA1
22	15.999		# OH1
23	12.011		# CT3
24	1.008		# HA3


Pair Coeffs

1		0.2		3.2963252571192556		0.2		3.2963252571192556
2		0.046		0.40001352444501237		0.046		0.40001352444501237
3		0.056		3.5814128469241635		0.01		3.385415128933289
4		0.028		2.3876085646161096		0.028		2.3876085646161096
5		0.11		3.563594872561357		0.11		3.563594872561357
6		0.12		3.0290556416771532		0.12		2.49451641079295
7		0.2		3.2963252571192556		0.2		2.7617860262350518
8		0.046		0.40001352444501237		0.046		0.40001352444501237
9		0.032		3.563594872561357		0.01		3.385415128933289
10		0.022		2.351972615890496		0.022		2.351972615890496
11		0.056		3.5814128469241635		0.01		3.385415128933289
12		0.034		2.3876085646161096		0.034		2.3876085646161096
13		0.07		3.563594872561357		0.07		3.563594872561357
14		0.12		3.0290556416771532		0.12		3.0290556416771532
15		0.073		3.5457768981985502		0.073		3.5457768981985502
16		0.07		3.550053212045624		0.07		3.550053212045624
17		0.03		2.4200372779564177		0.03		2.4200372779564177
18		0.2		3.2963252571192556		0.2		3.2963252571192556
19		0.099		3.3141432314820625		0.099		3.3141432314820625
20		0.073		3.5457768981985502		0.073		3.5457768981985502
21		0.045		2.3876085646161096		0.045		2.3876085646161096
22		0.1521		3.1537814622168012		0.1521		3.1537814622168012
23		0.078		3.6348667700125845		0.01		3.385415128933289
24		0.024		2.3876085646161096		0.024		2.3876085646161096


Bond Coeffs

1		200.0		1.48
2		403.0		1.04
3		330.0		1.08
4		250.0		1.49
5		370.0		1.345
6		620.0		1.23
7		440.0		0.997
8		320.0		1.43
9		330.0		1.08
10		222.5		1.538
11		250.0		1.49
12		309.0		1.111
13		222.5		1.53
14		309.0		1.111
15		200.0		1.522
16		525.0		1.26
17		222.5		1.538
18		375.0		1.492
19		350.0		1.365
20		350.0		1.43
21		340.0		1.08
22		270.0		1.37
23		270.0		1.37
24		537.5		0.976
25		360.0		1.385
26		300.0		1.36
27		340.0		1.08
28		305.0		1.375
29		305.0		1.375
30		222.5		1.5
31		309.0		1.111
32		428.0		1.42
33		222.5		1.538
34		545.0		0.96
35		322.0		1.111
36		230.0		1.49
37		334.3		1.411
38		200.0		1.522
39		222.5		1.53
40		200.0		1.522


Angle Coeffs

1		51.5		107.5		0.0		0.0
2		43.7		110.0		0.0		0.0
3		30.0		109.5		20.0		2.074
4		44.0		109.5		0.0		0.0
5		80.0		121.0		0.0		0.0
6		80.0		116.5		0.0		0.0
7		36.0		115.0		0.0		0.0
8		50.0		109.5		0.0		0.0
9		48.0		108.0		0.0		0.0
10		50.0		107.0		0.0		0.0
11		80.0		122.5		0.0		0.0
12		34.0		123.0		0.0		0.0
13		35.0		117.0		0.0		0.0
14		80.0		121.0		0.0		0.0
15		80.0		116.5		0.0		0.0
16		26.5		110.1		22.53		2.179
17		58.35		113.5		11.16		2.561
18		50.0		120.0		0.0		0.0
19		26.5		110.1		22.53		2.179
20		52.0		108.0		0.0		0.0
21		35.0		111.0		0.0		0.0
22		52.0		108.0		0.0		0.0
23		70.0		113.5		0.0		0.0
24		35.5		109.0		5.4		1.802
25		40.0		118.0		50.0		2.388
26		26.5		110.1		22.53		2.179
27		35.5		109.0		5.4		1.802
28		33.0		109.5		30.0		2.163
29		100.0		124.0		70.0		2.225
30		50.0		109.5		0.0		0.0
31		26.5		110.1		22.53		2.179
32		58.35		114.0		0.0		0.0
33		30.0		127.0		0.0		0.0
34		30.0		126.7		0.0		0.0
35		35.0		111.0		0.0		0.0
36		52.0		108.0		0.0		0.0
37		70.0		113.5		0.0		0.0
38		85.0		108.0		0.0		0.0
39		130.0		133.5		0.0		0.0
40		55.0		109.5		0.0		0.0
41		28.0		126.0		0.0		0.0
42		85.0		112.0		0.0		0.0
43		32.0		125.0		25.0		2.173
44		95.0		107.4		0.0		0.0
45		85.0		110.5		25.0		2.24
46		32.0		125.0		25.0		2.177
47		50.0		113.2		0.0		0.0
48		30.0		122.0		22.0		2.146
49		28.0		126.0		0.0		0.0
50		85.0		106.4		25.0		2.261
51		50.0		110.0		0.0		0.0
52		30.0		120.0		22.0		2.1525
53		40.0		120.0		35.0		2.4162
54		30.0		120.0		22.0		2.1525
55		30.0		120.0		22.0		2.1525
56		130.0		129.5		0.0		0.0
57		34.5		110.1		22.53		2.179
58		53.35		108.5		8.0		2.561
59		75.7		110.1		0.0		0.0
60		33.43		110.1		22.53		2.179
61		57.5		106.0		0.0		0.0
62		35.0		111.0		0.0		0.0
63		52.0		108.0		0.0		0.0
64		70.0		113.5		0.0		0.0
65		45.9		108.89		0.0		0.0
66		75.7		110.1		0.0		0.0
67		34.5		110.1		22.53		2.179
68		35.5		108.4		5.4		1.802
69		51.8		107.5		0.0		0.0
70		45.8		122.3		0.0		0.0
71		40.0		120.0		35.0		2.4162
72		49.3		107.5		0.0		0.0
73		65.0		108.0		0.0		0.0
74		45.2		120.0		0.0		0.0
75		52.0		108.0		0.0		0.0
76		40.0		118.0		50.0		2.388
77		33.0		109.5		30.0		2.163
78		35.0		111.0		0.0		0.0
79		52.0		108.0		0.0		0.0
80		70.0		113.5		0.0		0.0
81		58.35		113.5		11.16		2.561
82		26.5		110.1		22.53		2.179
83		58.35		113.6		11.16		2.561
84		67.7		110.0		0.0		0.0
85		45.0		107.5		35.0		2.101
86		53.35		114.0		8.0		2.561
87		50.0		107.0		0.0		0.0
88		52.0		108.0		0.0		0.0
89		50.0		109.5		0.0		0.0
90		40.0		118.0		50.0		2.388


Dihedral Coeffs

1		1.0		1		0		1.0
2		0.0		1		0		1.0
3		0.1		3		0		1.0
4		2.5		2		180		1.0
5		1.6		1		0		1.0
6		0.0		1		0		1.0
7		0.0		1		0		1.0
8		1.8		1		0		1.0
9		0.2		1		180		1.0
10		0.0		1		0		1.0
11		2.5		2		180		1.0
12		2.5		2		180		1.0
13		0.3		1		0		1.0
14		0.2		3		0		1.0
15		0.6		1		0		1.0
16		0.0		1		0		1.0
17		0.0		1		0		1.0
18		0.0		1		0		1.0
19		0.0		1		0		1.0
20		2.5		2		180		1.0
21		1.6		1		0		1.0
22		0.0		1		180		1.0
23		0.19		3		0		1.0
24		0.2		3		0		1.0
25		0.2		3		0		1.0
26		0.0		1		0		1.0
27		0.0		1		0		1.0
28		0.05		6		180		1.0
29		0.0		1		0		1.0
30		1.4		1		0		1.0
31		0.2		3		0		1.0
32		0.19		3		0		1.0
33		0.19		3		0		1.0
34		0.11		1		0		1.0
35		1.8		1		0		1.0
36		0.2		3		0		1.0
37		0.0		1		0		1.0
38		0.36		1		180		1.0
39		0.03		1		0		1.0
40		2.5		2		180		1.0
41		3.0		2		180		1.0
42		2.5		2		180		1.0
43		1.2		2		180		1.0
44		0.0		1		0		1.0
45		1.4		1		0		1.0
46		0.2		3		0		1.0
47		0.01		3		0		1.0
48		4.0		2		180		1.0
49		4.0		2		180		1.0
50		4.0		2		180		1.0
51		6.5		2		180		1.0
52		6.0		2		180		1.0
53		0.05		2		180		1.0
54		3.0		2		180		1.0
55		6.5		2		180		1.0
56		3.0		2		180		1.0
57		5.0		2		180		1.0
58		2.6		2		180		1.0
59		0.4		2		180		1.0
60		2.8		2		180		1.0
61		3.0		2		180		1.0
62		3.0		2		180		1.0
63		4.0		2		180		1.0
64		5.0		2		180		1.0
65		0.2		2		180		1.0
66		0.85		2		180		1.0
67		3.0		2		180		1.0
68		3.0		2		180		1.0
69		3.0		2		180		1.0
70		3.0		2		180		1.0
71		4.2		2		180		1.0
72		3.1		2		180		1.0
73		3.0		2		180		1.0
74		4.2		2		180		1.0
75		2.4		2		180		1.0
76		2.4		2		180		1.0
77		1.8		1		0		1.0
78		0.2		3		0		1.0
79		0.0		1		0		1.0
80		0.14		3		0		1.0
81		0.2		3		0		1.0
82		0.0		1		0		1.0
83		1.4		1		0		1.0
84		1.33		1		0		1.0
85		0.0		6		0		1.0
86		4.2		2		180		1.0
87		3.1		2		180		1.0
88		3.1		2		180		1.0
89		4.2		2		180		1.0
90		3.1		2		180		1.0
91		0.99		2		180		1.0
92		4.2		2		180		1.0
93		0.68		1		180		1.0
94		0.84		1		0		1.0
95		0.2		3		0		1.0
96		0.05		6		180		1.0
97		1.61		1		180		1.0
98		1.8		1		0		1.0
99		0.0		1		0		1.0
100		0.0		1		0		1.0
101		1.4		1		0		1.0
102		0.19		3		0		1.0
103		0.1		2		180		1.0
104		0.2		1		180		1.0
105		0.05		6		180		1.0
106		0.0		1		0		1.0
107		0.2		3		0		1.0
108		1.6		3		180		1.0


Improper Coeffs

1		120.0		0.0
2		20.0		0.0
3		96.0		0.0


Atoms # full

1 1 1 -0.3 -10.68 -1.819 2.343 
2 1 2 0.33 -11.423 -1.173 2.521 
3 1 2 0.33 -9.834 -1.489 2.763 
4 1 2 0.33 -10.915 -2.718 2.711 
5 1 3 0.13 -10.48 -1.934 0.877 
6 1 4 0.09 -10.187 -0.966 0.497 
7 1 4 0.09 -11.391 -2.284 0.414 
8 1 5 0.51 -9.355 -2.913 0.59 
9 1 6 -0.51 -9.032 -3.763 1.396 
10 2 7 -0.47 -8.739 -2.79 -0.55 
11 2 8 0.31 -8.948 -2.119 -1.256 
12 2 9 0.07 -7.619 -3.699 -0.894 
13 2 10 0.09 -7.74 -4.647 -0.385 
14 2 11 -0.18 -7.606 -3.928 -2.401 
15 2 12 0.09 -6.813 -4.481 -2.659 
16 2 12 0.09 -7.55 -2.975 -2.911 
17 2 3 -0.28 -8.896 -4.653 -2.796 
18 2 12 0.09 -9.681 -4.088 -2.545 
19 2 12 0.09 -8.947 -5.6 -2.277 
20 2 13 0.62 -8.916 -4.899 -4.305 
21 2 14 -0.76 -9.237 -3.974 -5.031 
22 2 14 -0.76 -8.615 -6.01 -4.708 
23 2 5 0.51 -6.323 -3.04 -0.439 
24 2 6 -0.51 -6.059 -1.891 -0.733 
25 3 7 -0.47 -5.523 -3.753 0.3 
26 3 8 0.31 -5.692 -4.698 0.57 
27 3 9 0.07 -4.25 -3.17 0.81 
28 3 10 0.09 -4.328 -2.09 0.854 
29 3 3 -0.18 -3.983 -3.709 2.213 
30 3 12 0.09 -3.046 -3.486 2.478 
31 3 12 0.09 -4.12 -4.78 2.217 
32 3 15 -0.03 -4.929 -3.088 3.188 
33 3 16 -0.15 -6.194 -3.505 3.425 
34 3 17 0.22 -6.685 -4.332 2.931 
35 3 18 -0.51 -6.754 -2.701 4.408 
36 3 8 0.37 -7.66 -2.796 4.768 
37 3 19 0.24 -5.871 -1.727 4.834 
38 3 19 0.11 -4.7 -1.95 4.063 
39 3 20 -0.25 -3.594 -1.098 4.263 
40 3 17 0.17 -2.701 -1.245 3.682 
41 3 16 -0.2 -3.653 -0.054 5.206 
42 3 17 0.14 -2.799 0.589 5.349 
43 3 20 -0.27 -5.938 -0.688 5.776 
44 3 17 0.16 -6.837 -0.535 6.354 
45 3 16 -0.14 -4.823 0.15 5.963 
46 3 17 0.14 -4.86 0.951 6.684 
47 3 5 0.51 -3.086 -3.557 -0.096 
48 3 6 -0.51 -2.921 -4.703 -0.464 
49 4 7 -0.47 -2.265 -2.6 -0.437 
50 4 8 0.31 -2.359 -1.644 -0.161 
51 4 9 0.07 -1.076 -2.875 -1.3 
52 4 10 0.09 -0.912 -3.942 -1.388 
53 4 9 0.14 -1.295 -2.27 -2.689 
54 4 21 0.09 -0.438 -2.478 -3.312 
55 4 22 -0.66 -1.464 -0.867 -2.569 
56 4 8 0.43 -0.952 -0.57 -1.814 
57 4 23 -0.27 -2.543 -2.882 -3.328 
58 4 24 0.09 -2.326 -3.892 -3.646 
59 4 24 0.09 -2.836 -2.29 -4.183 
60 4 24 0.09 -3.347 -2.896 -2.607 
61 4 5 0.51 0.141 -2.225 -0.645 
62 4 6 -0.51 0.026 -1.211 0.014 
63 5 7 -0.47 1.302 -2.808 -0.801 
64 5 8 0.31 1.461 -3.641 -1.328 
65 5 9 0.07 2.529 -2.23 -0.164 
66 5 10 0.09 2.339 -1.217 0.162 
67 5 3 -0.18 2.914 -3.085 1.052 
68 5 12 0.09 2.951 -4.048 0.783 
69 5 12 0.09 2.177 -2.953 1.83 
70 5 16 0.0 4.272 -2.656 1.565 
71 5 16 -0.115 4.417 -1.418 2.217 
72 5 17 0.115 3.559 -0.778 2.358 
73 5 16 -0.115 5.681 -1.012 2.686 
74 5 17 0.115 5.791 -0.063 3.185 
75 5 16 0.11 6.801 -1.846 2.502 
76 5 22 -0.54 8.04 -1.447 2.96 
77 5 8 0.43 8.295 -2.033 3.676 
78 5 16 -0.115 5.393 -3.491 1.382 
79 5 17 0.115 5.282 -4.442 0.883 
80 5 16 -0.115 6.657 -3.085 1.85 
81 5 17 0.115 7.517 -3.724 1.709 
82 5 5 0.51 3.681 -2.218 -1.167 
83 5 6 -0.51 3.923 -3.18 -1.869 
84 6 7 -0.47 4.403 -1.126 -1.219 
85 6 8 0.31 4.262 -0.304 -0.675 
86 6 9 0.07 5.566 -1.015 -2.153 
87 6 10 0.09 5.596 -1.865 -2.822 
88 6 11 -0.28 5.434 0.272 -2.968 
89 6 12 0.09 5.499 1.062 -2.359 
90 6 12 0.09 4.477 0.284 -3.471 
91 6 13 0.62 6.556 0.331 -4.004 
92 6 14 -0.76 7.508 -0.417 -3.858 
93 6 14 -0.76 6.445 1.123 -4.925 
94 6 5 0.51 6.854 -0.966 -1.329 
95 6 6 -0.51 7.136 0.005 -0.655 
96 7 7 -0.47 7.635 -2.009 -1.376 
97 7 8 0.31 7.484 -2.845 -1.897 
98 7 9 0.07 8.904 -2.033 -0.595 
99 7 10 0.09 8.69 -1.811 0.44 
100 7 11 -0.28 9.536 -3.424 -0.69 
101 7 12 0.09 9.868 -3.578 -1.621 
102 7 12 0.09 8.796 -4.172 -0.444 
103 7 13 0.62 10.707 -3.518 0.291 
104 7 14 -0.76 11.271 -2.484 0.611 
105 7 14 -0.76 11.02 -4.623 0.703 
106 7 5 0.51 9.882 -0.99 -1.142 
107 7 6 -0.51 10.667 -0.42 -0.411 
108 8 7 -0.47 9.848 -0.741 -2.423 
109 8 8 0.31 9.226 -1.178 -3.071 
110 8 9 0.07 10.786 0.257 -3.01 
111 8 10 0.09 11.801 -0.023 -2.766 
112 8 23 -0.27 10.62 0.277 -4.536 
113 8 24 0.09 10.988 1.213 -4.931 
114 8 24 0.09 9.578 0.166 -4.786 
115 8 24 0.09 11.182 -0.539 -4.968 
116 8 5 0.51 10.497 1.649 -2.439 
117 8 6 -0.51 11.402 2.385 -2.097 
118 9 7 -0.47 9.244 2.024 -2.343 
119 9 8 0.31 8.455 1.469 -2.604 
120 9 9 0.07 8.895 3.38 -1.808 
121 9 10 0.09 9.763 4.024 -1.842 
122 9 9 0.14 7.787 3.998 -2.671 
123 9 21 0.09 7.564 4.99 -2.307 
124 9 22 -0.66 6.621 3.19 -2.584 
125 9 8 0.43 6.789 2.495 -1.944 
126 9 23 -0.27 8.239 4.083 -4.141 
127 9 24 0.09 9.317 4.156 -4.195 
128 9 24 0.09 7.799 4.955 -4.605 
129 9 24 0.09 7.913 3.198 -4.666 
130 9 5 0.51 8.406 3.277 -0.361 
131 9 6 -0.51 8.061 4.268 0.25 
132 10 7 -0.47 8.364 2.096 0.199 
133 10 8 0.31 8.629 1.238 -0.238 
134 10 9 0.07 7.888 1.968 1.61 
135 10 10 0.09 7.765 0.927 1.867 
136 10 3 -0.18 8.891 2.622 2.555 
137 10 12 0.09 8.561 2.524 3.494 
138 10 12 0.09 8.988 3.668 2.309 
139 10 3 -0.18 10.249 1.946 2.434 
140 10 12 0.09 10.589 2.02 1.497 
141 10 12 0.09 10.157 0.899 2.69 
142 10 3 -0.18 11.219 2.632 3.396 
143 10 12 0.09 10.879 2.532 4.331 
144 10 12 0.09 11.291 3.68 3.139 
145 10 3 0.21 12.61 1.983 3.312 
146 10 12 0.05 13.312 2.689 3.413 
147 10 12 0.05 12.742 1.499 2.354 
148 10 1 -0.3 12.733 0.977 4.399 
149 10 2 0.33 13.407 0.24 4.117 
150 10 2 0.33 11.802 0.55 4.583 
151 10 2 0.33 13.073 1.446 5.258 
152 10 5 0.51 6.563 2.703 1.754 
153 10 6 -0.51 6.333 3.389 2.73 
154 11 7 -0.47 5.704 2.591 0.78 
155 11 8 0.31 5.832 2.043 -0.047 
156 11 9 0.07 4.399 3.315 0.84 
157 11 10 0.09 4.333 3.914 1.737 
158 11 9 0.14 4.286 4.229 -0.382 
159 11 21 0.09 4.326 3.637 -1.283 
160 11 22 -0.66 5.361 5.158 -0.372 
161 11 8 0.43 6.049 4.809 0.201 
162 11 23 -0.27 2.962 4.99 -0.336 
163 11 24 0.09 2.875 5.504 0.611 
164 11 24 0.09 2.14 4.298 -0.446 
165 11 24 0.09 2.935 5.711 -1.138 
166 11 5 0.51 3.249 2.317 0.821 
167 11 6 -0.51 3.171 1.451 -0.028 
168 12 7 -0.47 2.337 2.459 1.74 
169 12 8 0.31 2.352 3.152 2.459 
170 12 9 0.07 1.157 1.555 1.781 
171 12 10 0.09 1.372 0.624 1.273 
172 12 3 -0.18 0.76 1.282 3.239 
173 12 12 0.09 -0.171 0.919 3.253 
174 12 12 0.09 0.816 2.204 3.798 
175 12 16 0.0 1.687 0.268 3.868 
176 12 16 -0.115 1.379 -1.104 3.792 
177 12 17 0.115 0.494 -1.43 3.268 
178 12 16 -0.115 2.225 -2.05 4.402 
179 12 17 0.115 1.989 -3.103 4.343 
180 12 16 -0.115 3.381 -1.626 5.084 
181 12 17 0.115 4.028 -2.352 5.556 
182 12 16 -0.115 2.841 0.694 4.552 
183 12 17 0.115 3.079 1.746 4.609 
184 12 16 -0.115 3.691 -0.253 5.158 
185 12 17 0.115 4.578 0.073 5.681 
186 12 5 0.51 0.009 2.285 1.089 
187 12 6 -0.51 -0.19 3.46 1.301 
188 13 7 -0.47 -0.749 1.618 0.262 
189 13 8 0.31 -0.644 0.651 0.033 
190 13 9 0.07 -1.885 2.295 -0.434 
191 13 10 0.09 -2.058 3.279 -0.013 
192 13 9 0.14 -1.568 2.434 -1.929 
193 13 21 0.09 -1.389 1.458 -2.35 
194 13 22 -0.66 -0.403 3.233 -2.084 
195 13 8 0.43 0.266 2.902 -1.482 
196 13 23 -0.27 -2.745 3.099 -2.665 
197 13 24 0.09 -3.415 2.339 -3.04 
198 13 24 0.09 -2.365 3.68 -3.492 
199 13 24 0.09 -3.283 3.751 -1.991 
200 13 5 0.51 -3.14 1.458 -0.244 
201 13 6 -0.51 -3.122 0.253 -0.4 
202 14 7 -0.47 -4.229 2.093 0.096 
203 14 8 0.31 -4.291 3.078 0.235 
204 14 9 0.07 -5.51 1.357 0.309 
205 14 10 0.09 -5.389 0.313 0.041 
206 14 9 -0.09 -5.908 1.468 1.792 
207 14 21 0.09 -5.029 1.271 2.395 
208 14 23 -0.27 -6.39 2.896 2.101 
209 14 24 0.09 -6.459 3.027 3.171 
210 14 24 0.09 -7.361 3.056 1.657 
211 14 24 0.09 -5.687 3.609 1.696 
212 14 23 -0.27 -7.014 0.431 2.146 
213 14 24 0.09 -6.663 -0.203 2.945 
214 14 24 0.09 -7.245 -0.185 1.289 
215 14 24 0.09 -7.915 0.936 2.466 
216 14 5 0.51 -6.577 1.991 -0.584 
217 14 6 -0.51 -6.739 3.196 -0.606 
218 15 7 -0.47 -7.29 1.192 -1.339 
219 15 8 0.31 -7.202 0.197 -1.366 
220 15 9 0.07 -8.336 1.743 -2.258 
221 15 10 0.09 -8.395 2.818 -2.166 
222 15 9 0.14 -7.955 1.381 -3.697 
223 15 21 0.09 -7.958 0.306 -3.812 
224 15 22 -0.66 -6.657 1.887 -3.977 
225 15 8 0.43 -6.315 2.286 -3.174 
226 15 23 -0.27 -8.958 1.999 -4.675 
227 15 24 0.09 -9.951 1.634 -4.457 
228 15 24 0.09 -8.69 1.723 -5.684 
229 15 24 0.09 -8.939 3.074 -4.579 
230 15 5 0.51 -9.702 1.135 -1.929 
231 15 6 -0.51 -9.861 -0.068 -1.868 
232 16 7 -0.47 -10.696 1.962 -1.73 
233 16 8 0.31 -10.639 2.956 -1.764 
234 16 9 0.07 -12.061 1.443 -1.421 
235 16 10 0.09 -11.98 0.536 -0.837 
236 16 11 -0.18 -12.85 2.516 -0.633 
237 16 12 0.09 -13.802 2.509 -0.938 
238 16 12 0.09 -12.406 3.482 -0.814 
239 16 3 -0.28 -12.808 2.217 0.871 
240 16 12 0.09 -11.866 2.027 1.147 
241 16 12 0.09 -13.433 1.362 1.079 
242 16 13 0.62 -13.333 3.423 1.651 
243 16 14 -0.76 -12.531 4.275 1.995 
244 16 14 -0.76 -14.528 3.474 1.892 
245 16 13 0.34 -12.775 1.129 -2.743 
246 16 14 -0.67 -12.163 1.345 -3.503 
247 16 14 -0.67 -13.691 0.78 -2.543 


Bonds

1 1 1 5 
2 2 1 2 
3 2 1 3 
4 2 1 4 
5 3 5 6 
6 3 5 7 
7 4 5 8 
8 5 8 10 
9 6 8 9 
10 7 10 11 
11 8 10 12 
12 9 12 13 
13 10 12 14 
14 11 12 23 
15 12 14 15 
16 12 14 16 
17 13 14 17 
18 14 17 18 
19 14 17 19 
20 15 17 20 
21 16 20 21 
22 16 20 22 
23 5 23 25 
24 6 23 24 
25 7 25 26 
26 8 25 27 
27 9 27 28 
28 17 27 29 
29 11 27 47 
30 14 29 30 
31 14 29 31 
32 18 29 32 
33 19 32 33 
34 20 32 38 
35 21 33 34 
36 22 33 35 
37 23 35 37 
38 24 35 36 
39 25 37 38 
40 26 37 43 
41 26 38 39 
42 27 39 40 
43 28 39 41 
44 29 41 45 
45 21 41 42 
46 27 43 44 
47 28 43 45 
48 21 45 46 
49 5 47 49 
50 6 47 48 
51 7 49 50 
52 8 49 51 
53 9 51 52 
54 30 51 53 
55 11 51 61 
56 31 53 54 
57 32 53 55 
58 33 53 57 
59 34 55 56 
60 35 57 58 
61 35 57 59 
62 35 57 60 
63 5 61 63 
64 6 61 62 
65 7 63 64 
66 8 63 65 
67 9 65 66 
68 17 65 67 
69 11 65 82 
70 14 67 68 
71 14 67 69 
72 36 67 70 
73 29 70 71 
74 29 70 78 
75 21 71 72 
76 29 71 73 
77 21 73 74 
78 29 73 75 
79 29 75 80 
80 37 75 76 
81 34 76 77 
82 21 78 79 
83 29 78 80 
84 21 80 81 
85 5 82 84 
86 6 82 83 
87 7 84 85 
88 8 84 86 
89 9 86 87 
90 10 86 88 
91 11 86 94 
92 12 88 89 
93 12 88 90 
94 38 88 91 
95 16 91 92 
96 16 91 93 
97 5 94 96 
98 6 94 95 
99 7 96 97 
100 8 96 98 
101 9 98 99 
102 10 98 100 
103 11 98 106 
104 12 100 101 
105 12 100 102 
106 38 100 103 
107 16 103 104 
108 16 103 105 
109 5 106 108 
110 6 106 107 
111 7 108 109 
112 8 108 110 
113 9 110 111 
114 33 110 112 
115 11 110 116 
116 35 112 113 
117 35 112 114 
118 35 112 115 
119 5 116 118 
120 6 116 117 
121 7 118 119 
122 8 118 120 
123 9 120 121 
124 30 120 122 
125 11 120 130 
126 31 122 123 
127 32 122 124 
128 33 122 126 
129 34 124 125 
130 35 126 127 
131 35 126 128 
132 35 126 129 
133 5 130 132 
134 6 130 131 
135 7 132 133 
136 8 132 134 
137 9 134 135 
138 17 134 136 
139 11 134 152 
140 14 136 137 
141 14 136 138 
142 39 136 139 
143 14 139 140 
144 14 139 141 
145 39 139 142 
146 14 142 143 
147 14 142 144 
148 39 142 145 
149 14 145 146 
150 14 145 147 
151 1 145 148 
152 2 148 149 
153 2 148 150 
154 2 148 151 
155 5 152 154 
156 6 152 153 
157 7 154 155 
158 8 154 156 
159 9 156 157 
160 30 156 158 
161 11 156 166 
162 31 158 159 
163 32 158 160 
164 33 158 162 
165 34 160 161 
166 35 162 163 
167 35 162 164 
168 35 162 165 
169 5 166 168 
170 6 166 167 
171 7 168 169 
172 8 168 170 
173 9 170 171 
174 17 170 172 
175 11 170 186 
176 14 172 173 
177 14 172 174 
178 36 172 175 
179 29 175 176 
180 29 175 182 
181 21 176 177 
182 29 176 178 
183 21 178 179 
184 29 178 180 
185 29 180 184 
186 21 180 181 
187 21 182 183 
188 29 182 184 
189 21 184 185 
190 5 186 188 
191 6 186 187 
192 7 188 189 
193 8 188 190 
194 9 190 191 
195 30 190 192 
196 11 190 200 
197 31 192 193 
198 32 192 194 
199 33 192 196 
200 34 194 195 
201 35 196 197 
202 35 196 198 
203 35 196 199 
204 5 200 202 
205 6 200 201 
206 7 202 203 
207 8 202 204 
208 9 204 205 
209 30 204 206 
210 11 204 216 
211 31 206 207 
212 33 206 208 
213 33 206 212 
214 35 208 209 
215 35 208 210 
216 35 208 211 
217 35 212 213 
218 35 212 214 
219 35 212 215 
220 5 216 218 
221 6 216 217 
222 7 218 219 
223 8 218 220 
224 9 220 221 
225 30 220 222 
226 11 220 230 
227 31 222 223 
228 32 222 224 
229 33 222 226 
230 34 224 225 
231 35 226 227 
232 35 226 228 
233 35 226 229 
234 5 230 232 
235 6 230 231 
236 7 232 233 
237 8 232 234 
238 9 234 235 
239 10 234 236 
240 40 234 245 
241 12 236 237 
242 12 236 238 
243 13 236 239 
244 14 239 240 
245 14 239 241 
246 15 239 242 
247 16 242 243 
248 16 242 244 
249 16 245 247 
250 16 245 246 


Angles

1 1 1 5 7 
2 1 1 5 6 
3 2 1 5 8 
4 3 2 1 5 
5 4 2 1 4 
6 4 2 1 3 
7 3 3 1 5 
8 4 3 1 4 
9 3 4 1 5 
10 5 5 8 9 
11 6 5 8 10 
12 7 6 5 7 
13 8 7 5 8 
14 8 6 5 8 
15 9 10 12 13 
16 10 10 12 23 
17 11 9 8 10 
18 12 8 10 11 
19 13 11 10 12 
20 14 12 23 24 
21 15 12 23 25 
22 16 12 14 16 
23 16 12 14 15 
24 17 12 14 17 
25 18 8 10 12 
26 19 14 17 19 
27 19 14 17 18 
28 20 14 17 20 
29 21 13 12 14 
30 22 14 12 23 
31 23 10 12 14 
32 24 15 14 16 
33 25 17 20 21 
34 25 17 20 22 
35 26 16 14 17 
36 26 15 14 17 
37 27 18 17 19 
38 28 19 17 20 
39 28 18 17 20 
40 29 21 20 22 
41 30 13 12 23 
42 9 25 27 28 
43 10 25 27 47 
44 11 24 23 25 
45 12 23 25 26 
46 13 26 25 27 
47 14 27 47 48 
48 15 27 47 49 
49 31 27 29 31 
50 31 27 29 30 
51 32 27 29 32 
52 18 23 25 27 
53 33 29 32 33 
54 34 29 32 38 
55 35 28 27 29 
56 36 29 27 47 
57 37 25 27 29 
58 27 30 29 31 
59 38 32 38 37 
60 39 32 38 39 
61 40 31 29 32 
62 40 30 29 32 
63 41 33 35 36 
64 42 33 35 37 
65 43 32 33 34 
66 44 35 37 38 
67 45 32 33 35 
68 46 34 33 35 
69 47 37 43 45 
70 48 37 43 44 
71 49 36 35 37 
72 47 38 39 41 
73 48 38 39 40 
74 50 33 32 38 
75 51 37 38 39 
76 52 40 39 41 
77 53 41 45 43 
78 54 41 45 46 
79 55 39 41 42 
80 51 38 37 43 
81 56 35 37 43 
82 52 44 43 45 
83 53 39 41 45 
84 54 42 41 45 
85 55 43 45 46 
86 30 28 27 47 
87 9 49 51 52 
88 10 49 51 61 
89 11 48 47 49 
90 12 47 49 50 
91 13 50 49 51 
92 14 51 61 62 
93 15 51 61 63 
94 57 51 53 54 
95 58 51 53 57 
96 59 51 53 55 
97 18 47 49 51 
98 60 53 57 60 
99 60 53 57 59 
100 60 53 57 58 
101 61 53 55 56 
102 62 52 51 53 
103 63 53 51 61 
104 64 49 51 53 
105 65 54 53 55 
106 66 55 53 57 
107 67 54 53 57 
108 68 58 57 60 
109 68 58 57 59 
110 68 59 57 60 
111 30 52 51 61 
112 9 63 65 66 
113 10 63 65 82 
114 11 62 61 63 
115 12 61 63 64 
116 13 64 63 65 
117 14 65 82 83 
118 15 65 82 84 
119 31 65 67 69 
120 31 65 67 68 
121 69 65 67 70 
122 18 61 63 65 
123 70 67 70 71 
124 70 67 70 78 
125 35 66 65 67 
126 36 67 65 82 
127 37 63 65 67 
128 27 68 67 69 
129 71 70 78 80 
130 54 70 78 79 
131 72 69 67 70 
132 72 68 67 70 
133 71 71 73 75 
134 54 71 73 74 
135 54 70 71 72 
136 71 70 71 73 
137 54 72 71 73 
138 54 74 73 75 
139 71 75 80 78 
140 54 75 80 81 
141 73 75 76 77 
142 74 73 75 76 
143 71 71 70 78 
144 54 79 78 80 
145 71 73 75 80 
146 74 76 75 80 
147 54 78 80 81 
148 30 66 65 82 
149 9 84 86 87 
150 10 84 86 94 
151 11 83 82 84 
152 12 82 84 85 
153 13 85 84 86 
154 14 86 94 95 
155 15 86 94 96 
156 16 86 88 90 
157 16 86 88 89 
158 75 86 88 91 
159 18 82 84 86 
160 76 88 91 92 
161 76 88 91 93 
162 21 87 86 88 
163 22 88 86 94 
164 23 84 86 88 
165 24 89 88 90 
166 77 90 88 91 
167 77 89 88 91 
168 29 92 91 93 
169 30 87 86 94 
170 9 96 98 99 
171 10 96 98 106 
172 11 95 94 96 
173 12 94 96 97 
174 13 97 96 98 
175 14 98 106 107 
176 15 98 106 108 
177 16 98 100 102 
178 16 98 100 101 
179 75 98 100 103 
180 18 94 96 98 
181 76 100 103 104 
182 76 100 103 105 
183 21 99 98 100 
184 22 100 98 106 
185 23 96 98 100 
186 24 101 100 102 
187 77 102 100 103 
188 77 101 100 103 
189 29 104 103 105 
190 30 99 98 106 
191 9 108 110 111 
192 10 108 110 116 
193 11 107 106 108 
194 12 106 108 109 
195 13 109 108 110 
196 14 110 116 117 
197 15 110 116 118 
198 60 110 112 115 
199 60 110 112 114 
200 60 110 112 113 
201 18 106 108 110 
202 78 111 110 112 
203 79 112 110 116 
204 80 108 110 112 
205 68 113 112 115 
206 68 113 112 114 
207 68 114 112 115 
208 30 111 110 116 
209 9 118 120 121 
210 10 118 120 130 
211 11 117 116 118 
212 12 116 118 119 
213 13 119 118 120 
214 14 120 130 131 
215 15 120 130 132 
216 57 120 122 123 
217 58 120 122 126 
218 59 120 122 124 
219 18 116 118 120 
220 60 122 126 129 
221 60 122 126 128 
222 60 122 126 127 
223 61 122 124 125 
224 62 121 120 122 
225 63 122 120 130 
226 64 118 120 122 
227 65 123 122 124 
228 66 124 122 126 
229 67 123 122 126 
230 68 127 126 129 
231 68 127 126 128 
232 68 128 126 129 
233 30 121 120 130 
234 9 132 134 135 
235 10 132 134 152 
236 11 131 130 132 
237 12 130 132 133 
238 13 133 132 134 
239 14 134 152 153 
240 15 134 152 154 
241 31 134 136 138 
242 31 134 136 137 
243 81 134 136 139 
244 18 130 132 134 
245 82 136 139 141 
246 82 136 139 140 
247 83 136 139 142 
248 35 135 134 136 
249 36 136 134 152 
250 37 132 134 136 
251 27 137 136 138 
252 82 139 142 144 
253 82 139 142 143 
254 83 139 142 145 
255 82 138 136 139 
256 82 137 136 139 
257 27 140 139 141 
258 82 142 145 147 
259 82 142 145 146 
260 84 142 145 148 
261 82 141 139 142 
262 82 140 139 142 
263 27 143 142 144 
264 3 145 148 151 
265 3 145 148 150 
266 3 145 148 149 
267 82 144 142 145 
268 82 143 142 145 
269 27 146 145 147 
270 85 147 145 148 
271 85 146 145 148 
272 4 149 148 151 
273 4 149 148 150 
274 4 150 148 151 
275 30 135 134 152 
276 9 154 156 157 
277 10 154 156 166 
278 11 153 152 154 
279 12 152 154 155 
280 13 155 154 156 
281 14 156 166 167 
282 15 156 166 168 
283 57 156 158 159 
284 58 156 158 162 
285 59 156 158 160 
286 18 152 154 156 
287 60 158 162 165 
288 60 158 162 164 
289 60 158 162 163 
290 61 158 160 161 
291 62 157 156 158 
292 63 158 156 166 
293 64 154 156 158 
294 65 159 158 160 
295 66 160 158 162 
296 67 159 158 162 
297 68 163 162 165 
298 68 163 162 164 
299 68 164 162 165 
300 30 157 156 166 
301 9 168 170 171 
302 10 168 170 186 
303 11 167 166 168 
304 12 166 168 169 
305 13 169 168 170 
306 14 170 186 187 
307 15 170 186 188 
308 31 170 172 174 
309 31 170 172 173 
310 69 170 172 175 
311 18 166 168 170 
312 70 172 175 176 
313 70 172 175 182 
314 35 171 170 172 
315 36 172 170 186 
316 37 168 170 172 
317 27 173 172 174 
318 71 175 182 184 
319 54 175 182 183 
320 72 174 172 175 
321 72 173 172 175 
322 71 176 178 180 
323 54 176 178 179 
324 54 175 176 177 
325 54 178 180 181 
326 71 175 176 178 
327 54 177 176 178 
328 54 179 178 180 
329 54 180 184 185 
330 71 180 184 182 
331 54 182 184 185 
332 71 176 175 182 
333 54 183 182 184 
334 54 181 180 184 
335 71 178 180 184 
336 30 171 170 186 
337 9 188 190 191 
338 10 188 190 200 
339 11 187 186 188 
340 12 186 188 189 
341 13 189 188 190 
342 14 190 200 201 
343 15 190 200 202 
344 57 190 192 193 
345 58 190 192 196 
346 59 190 192 194 
347 18 186 188 190 
348 60 192 196 199 
349 60 192 196 198 
350 60 192 196 197 
351 61 192 194 195 
352 62 191 190 192 
353 63 192 190 200 
354 64 188 190 192 
355 65 193 192 194 
356 66 194 192 196 
357 67 193 192 196 
358 68 197 196 199 
359 68 197 196 198 
360 68 198 196 199 
361 30 191 190 200 
362 9 202 204 205 
363 10 202 204 216 
364 11 201 200 202 
365 12 200 202 203 
366 13 203 202 204 
367 14 204 216 217 
368 15 204 216 218 
369 57 204 206 207 
370 58 204 206 212 
371 58 204 206 208 
372 18 200 202 204 
373 60 206 212 215 
374 60 206 212 214 
375 60 206 212 213 
376 60 206 208 211 
377 60 206 208 210 
378 60 206 208 209 
379 62 205 204 206 
380 63 206 204 216 
381 64 202 204 206 
382 67 207 206 208 
383 86 208 206 212 
384 68 209 208 211 
385 68 209 208 210 
386 68 210 208 211 
387 67 207 206 212 
388 68 213 212 215 
389 68 213 212 214 
390 68 214 212 215 
391 30 205 204 216 
392 9 218 220 221 
393 10 218 220 230 
394 11 217 216 218 
395 12 216 218 219 
396 13 219 218 220 
397 14 220 230 231 
398 15 220 230 232 
399 57 220 222 223 
400 58 220 222 226 
401 59 220 222 224 
402 18 216 218 220 
403 60 222 226 229 
404 60 222 226 228 
405 60 222 226 227 
406 61 222 224 225 
407 62 221 220 222 
408 63 222 220 230 
409 64 218 220 222 
410 65 223 222 224 
411 66 224 222 226 
412 67 223 222 226 
413 68 227 226 229 
414 68 227 226 228 
415 68 228 226 229 
416 30 221 220 230 
417 9 232 234 235 
418 87 232 234 245 
419 11 231 230 232 
420 12 230 232 233 
421 13 233 232 234 
422 16 234 236 238 
423 16 234 236 237 
424 17 234 236 239 
425 18 230 232 234 
426 19 236 239 241 
427 19 236 239 240 
428 20 236 239 242 
429 21 235 234 236 
430 88 236 234 245 
431 23 232 234 236 
432 24 237 236 238 
433 25 239 242 243 
434 25 239 242 244 
435 26 238 236 239 
436 26 237 236 239 
437 27 240 239 241 
438 28 241 239 242 
439 28 240 239 242 
440 29 243 242 244 
441 89 235 234 245 
442 90 234 245 246 
443 90 234 245 247 
444 29 246 245 247 


Dihedrals

1 1 1 5 8 10 
2 2 1 5 8 9 
3 3 2 1 5 8 
4 3 2 1 5 6 
5 3 2 1 5 7 
6 3 3 1 5 8 
7 3 3 1 5 6 
8 3 3 1 5 7 
9 3 4 1 5 8 
10 3 4 1 5 6 
11 3 4 1 5 7 
12 4 5 8 10 11 
13 5 5 8 10 12 
14 6 6 5 8 10 
15 7 6 5 8 9 
16 6 7 5 8 10 
17 7 7 5 8 9 
18 8 8 10 12 14 
19 9 8 10 12 23 
20 10 8 10 12 13 
21 11 9 8 10 11 
22 12 9 8 10 12 
23 13 10 12 14 17 
24 14 10 12 14 15 
25 14 10 12 14 16 
26 15 10 12 23 25 
27 16 10 12 23 24 
28 17 11 10 12 14 
29 18 11 10 12 23 
30 19 11 10 12 13 
31 20 12 23 25 26 
32 21 12 23 25 27 
33 22 12 14 17 20 
34 23 12 14 17 18 
35 23 12 14 17 19 
36 24 13 12 14 17 
37 25 13 12 14 15 
38 25 13 12 14 16 
39 26 13 12 23 25 
40 27 13 12 23 24 
41 28 14 17 20 22 
42 28 14 17 20 21 
43 29 14 12 23 25 
44 30 14 12 23 24 
45 31 23 12 14 15 
46 32 15 14 17 20 
47 33 15 14 17 18 
48 33 15 14 17 19 
49 31 23 12 14 16 
50 32 16 14 17 20 
51 33 16 14 17 18 
52 33 16 14 17 19 
53 34 23 12 14 17 
54 28 18 17 20 22 
55 28 18 17 20 21 
56 28 19 17 20 22 
57 28 19 17 20 21 
58 35 23 25 27 29 
59 9 23 25 27 47 
60 10 23 25 27 28 
61 11 24 23 25 26 
62 12 24 23 25 27 
63 36 25 27 29 32 
64 36 25 27 29 30 
65 36 25 27 29 31 
66 15 25 27 47 49 
67 16 25 27 47 48 
68 37 26 25 27 29 
69 18 26 25 27 47 
70 19 26 25 27 28 
71 20 27 47 49 50 
72 21 27 47 49 51 
73 38 27 29 32 38 
74 39 27 29 32 33 
75 36 28 27 29 32 
76 36 28 27 29 30 
77 36 28 27 29 31 
78 26 28 27 47 49 
79 27 28 27 47 48 
80 40 29 32 38 39 
81 41 29 32 38 37 
82 42 29 32 33 35 
83 43 29 32 33 34 
84 44 29 27 47 49 
85 45 29 27 47 48 
86 36 47 27 29 30 
87 46 30 29 32 38 
88 47 30 29 32 33 
89 36 47 27 29 31 
90 46 31 29 32 38 
91 47 31 29 32 33 
92 48 32 38 39 40 
93 49 32 38 39 41 
94 50 43 37 38 32 
95 51 35 37 38 32 
96 52 32 33 35 37 
97 53 32 33 35 36 
98 36 47 27 29 32 
99 54 33 35 37 43 
100 55 33 35 37 38 
101 56 33 32 38 39 
102 57 33 32 38 37 
103 58 34 33 35 37 
104 59 34 33 35 36 
105 60 38 32 33 34 
106 61 35 37 43 44 
107 62 35 37 43 45 
108 63 35 37 38 39 
109 64 38 32 33 35 
110 65 36 35 37 43 
111 66 36 35 37 38 
112 67 37 43 45 41 
113 68 37 43 45 46 
114 69 37 38 39 40 
115 70 37 38 39 41 
116 67 38 39 41 45 
117 68 38 39 41 42 
118 69 38 37 43 44 
119 70 38 37 43 45 
120 71 39 41 45 46 
121 72 39 41 45 43 
122 73 43 37 38 39 
123 74 40 39 41 45 
124 75 40 39 41 42 
125 74 44 43 45 41 